 # Si with diamond structure oriented X=[100] Y=[010] Z=[001].
  
       31209  atoms
           2  atom types
 
      0.000000000000     162.900000000000  xlo xhi
      0.000000000000     162.900000000000  ylo yhi
      0.000000000000     116.021843864367  zlo zhi
 
Masses
 
            1   28.08500000             # Si
            2   72.63000000             # Ge
 
Atoms # atomic
 
         1    1        0.000000000000       0.000000000000       0.000000000000
         2    1        2.715000000000       2.715000000000       0.000000000000
         3    1        0.000000000000       2.715000000000       2.715000000000
         4    1        2.715000000000       0.000000000000       2.715000000000
         5    1        1.357500000000       1.357500000000       1.357500000000
         6    1        4.072500000000       4.072500000000       1.357500000000
         7    1        4.072500000000       1.357500000000       4.072500000000
         8    1        1.357500000000       4.072500000000       4.072500000000
         9    1        5.430000000000       0.000000000000       0.000000000000
        10    1        8.145000000000       2.715000000000       0.000000000000
        11    1        5.430000000000       2.715000000000       2.715000000000
        12    1        8.145000000000       0.000000000000       2.715000000000
        13    1        6.787500000000       1.357500000000       1.357500000000
        14    1        9.502500000000       4.072500000000       1.357500000000
        15    1        9.502500000000       1.357500000000       4.072500000000
        16    1        6.787500000000       4.072500000000       4.072500000000
        17    1       10.860000000000       0.000000000000       0.000000000000
        18    1       13.575000000000       2.715000000000       0.000000000000
        19    1       10.860000000000       2.715000000000       2.715000000000
        20    1       13.575000000000       0.000000000000       2.715000000000
        21    1       12.217500000000       1.357500000000       1.357500000000
        22    1       14.932500000000       4.072500000000       1.357500000000
        23    1       14.932500000000       1.357500000000       4.072500000000
        24    1       12.217500000000       4.072500000000       4.072500000000
        25    1       16.290000000000       0.000000000000       0.000000000000
        26    1       19.005000000000       2.715000000000       0.000000000000
        27    1       16.290000000000       2.715000000000       2.715000000000
        28    1       19.005000000000       0.000000000000       2.715000000000
        29    1       17.647500000000       1.357500000000       1.357500000000
        30    1       20.362500000000       4.072500000000       1.357500000000
        31    1       20.362500000000       1.357500000000       4.072500000000
        32    1       17.647500000000       4.072500000000       4.072500000000
        33    1       21.720000000000       0.000000000000       0.000000000000
        34    1       24.435000000000       2.715000000000       0.000000000000
        35    1       21.720000000000       2.715000000000       2.715000000000
        36    1       24.435000000000       0.000000000000       2.715000000000
        37    1       23.077500000000       1.357500000000       1.357500000000
        38    1       25.792500000000       4.072500000000       1.357500000000
        39    1       25.792500000000       1.357500000000       4.072500000000
        40    1       23.077500000000       4.072500000000       4.072500000000
        41    1       27.150000000000       0.000000000000       0.000000000000
        42    1       29.865000000000       2.715000000000       0.000000000000
        43    1       27.150000000000       2.715000000000       2.715000000000
        44    1       29.865000000000       0.000000000000       2.715000000000
        45    1       28.507500000000       1.357500000000       1.357500000000
        46    1       31.222500000000       4.072500000000       1.357500000000
        47    1       31.222500000000       1.357500000000       4.072500000000
        48    1       28.507500000000       4.072500000000       4.072500000000
        49    1       32.580000000000       0.000000000000       0.000000000000
        50    1       35.295000000000       2.715000000000       0.000000000000
        51    1       32.580000000000       2.715000000000       2.715000000000
        52    1       35.295000000000       0.000000000000       2.715000000000
        53    1       33.937500000000       1.357500000000       1.357500000000
        54    1       36.652500000000       4.072500000000       1.357500000000
        55    1       36.652500000000       1.357500000000       4.072500000000
        56    1       33.937500000000       4.072500000000       4.072500000000
        57    1       38.010000000000       0.000000000000       0.000000000000
        58    1       40.725000000000       2.715000000000       0.000000000000
        59    1       38.010000000000       2.715000000000       2.715000000000
        60    1       40.725000000000       0.000000000000       2.715000000000
        61    1       39.367500000000       1.357500000000       1.357500000000
        62    1       42.082500000000       4.072500000000       1.357500000000
        63    1       42.082500000000       1.357500000000       4.072500000000
        64    1       39.367500000000       4.072500000000       4.072500000000
        65    1       43.440000000000       0.000000000000       0.000000000000
        66    1       46.155000000000       2.715000000000       0.000000000000
        67    1       43.440000000000       2.715000000000       2.715000000000
        68    1       46.155000000000       0.000000000000       2.715000000000
        69    1       44.797500000000       1.357500000000       1.357500000000
        70    1       47.512500000000       4.072500000000       1.357500000000
        71    1       47.512500000000       1.357500000000       4.072500000000
        72    1       44.797500000000       4.072500000000       4.072500000000
        73    1       48.870000000000       0.000000000000       0.000000000000
        74    1       51.585000000000       2.715000000000       0.000000000000
        75    1       48.870000000000       2.715000000000       2.715000000000
        76    1       51.585000000000       0.000000000000       2.715000000000
        77    1       50.227500000000       1.357500000000       1.357500000000
        78    1       52.942500000000       4.072500000000       1.357500000000
        79    1       52.942500000000       1.357500000000       4.072500000000
        80    1       50.227500000000       4.072500000000       4.072500000000
        81    1       54.300000000000       0.000000000000       0.000000000000
        82    1       57.015000000000       2.715000000000       0.000000000000
        83    1       54.300000000000       2.715000000000       2.715000000000
        84    1       57.015000000000       0.000000000000       2.715000000000
        85    1       55.657500000000       1.357500000000       1.357500000000
        86    1       58.372500000000       4.072500000000       1.357500000000
        87    1       58.372500000000       1.357500000000       4.072500000000
        88    1       55.657500000000       4.072500000000       4.072500000000
        89    1       59.730000000000       0.000000000000       0.000000000000
        90    1       62.445000000000       2.715000000000       0.000000000000
        91    1       59.730000000000       2.715000000000       2.715000000000
        92    1       62.445000000000       0.000000000000       2.715000000000
        93    1       61.087500000000       1.357500000000       1.357500000000
        94    1       63.802500000000       4.072500000000       1.357500000000
        95    1       63.802500000000       1.357500000000       4.072500000000
        96    1       61.087500000000       4.072500000000       4.072500000000
        97    1       65.160000000000       0.000000000000       0.000000000000
        98    1       67.875000000000       2.715000000000       0.000000000000
        99    1       65.160000000000       2.715000000000       2.715000000000
       100    1       67.875000000000       0.000000000000       2.715000000000
       101    1       66.517500000000       1.357500000000       1.357500000000
       102    1       69.232500000000       4.072500000000       1.357500000000
       103    1       69.232500000000       1.357500000000       4.072500000000
       104    1       66.517500000000       4.072500000000       4.072500000000
       105    1       70.590000000000       0.000000000000       0.000000000000
       106    1       73.305000000000       2.715000000000       0.000000000000
       107    1       70.590000000000       2.715000000000       2.715000000000
       108    1       73.305000000000       0.000000000000       2.715000000000
       109    1       71.947500000000       1.357500000000       1.357500000000
       110    1       74.662500000000       4.072500000000       1.357500000000
       111    1       74.662500000000       1.357500000000       4.072500000000
       112    1       71.947500000000       4.072500000000       4.072500000000
       113    1       76.020000000000       0.000000000000       0.000000000000
       114    1       78.735000000000       2.715000000000       0.000000000000
       115    1       76.020000000000       2.715000000000       2.715000000000
       116    1       78.735000000000       0.000000000000       2.715000000000
       117    1       77.377500000000       1.357500000000       1.357500000000
       118    1       80.092500000000       4.072500000000       1.357500000000
       119    1       80.092500000000       1.357500000000       4.072500000000
       120    1       77.377500000000       4.072500000000       4.072500000000
       121    1       81.450000000000       0.000000000000       0.000000000000
       122    1       84.165000000000       2.715000000000       0.000000000000
       123    1       81.450000000000       2.715000000000       2.715000000000
       124    1       84.165000000000       0.000000000000       2.715000000000
       125    1       82.807500000000       1.357500000000       1.357500000000
       126    1       85.522500000000       4.072500000000       1.357500000000
       127    1       85.522500000000       1.357500000000       4.072500000000
       128    1       82.807500000000       4.072500000000       4.072500000000
       129    1       86.880000000000       0.000000000000       0.000000000000
       130    1       89.595000000000       2.715000000000       0.000000000000
       131    1       86.880000000000       2.715000000000       2.715000000000
       132    1       89.595000000000       0.000000000000       2.715000000000
       133    1       88.237500000000       1.357500000000       1.357500000000
       134    1       90.952500000000       4.072500000000       1.357500000000
       135    1       90.952500000000       1.357500000000       4.072500000000
       136    1       88.237500000000       4.072500000000       4.072500000000
       137    1       92.310000000000       0.000000000000       0.000000000000
       138    1       95.025000000000       2.715000000000       0.000000000000
       139    1       92.310000000000       2.715000000000       2.715000000000
       140    1       95.025000000000       0.000000000000       2.715000000000
       141    1       93.667500000000       1.357500000000       1.357500000000
       142    1       96.382500000000       4.072500000000       1.357500000000
       143    1       96.382500000000       1.357500000000       4.072500000000
       144    1       93.667500000000       4.072500000000       4.072500000000
       145    1       97.740000000000       0.000000000000       0.000000000000
       146    1      100.455000000000       2.715000000000       0.000000000000
       147    1       97.740000000000       2.715000000000       2.715000000000
       148    1      100.455000000000       0.000000000000       2.715000000000
       149    1       99.097500000000       1.357500000000       1.357500000000
       150    1      101.812500000000       4.072500000000       1.357500000000
       151    1      101.812500000000       1.357500000000       4.072500000000
       152    1       99.097500000000       4.072500000000       4.072500000000
       153    1      103.170000000000       0.000000000000       0.000000000000
       154    1      105.885000000000       2.715000000000       0.000000000000
       155    1      103.170000000000       2.715000000000       2.715000000000
       156    1      105.885000000000       0.000000000000       2.715000000000
       157    1      104.527500000000       1.357500000000       1.357500000000
       158    1      107.242500000000       4.072500000000       1.357500000000
       159    1      107.242500000000       1.357500000000       4.072500000000
       160    1      104.527500000000       4.072500000000       4.072500000000
       161    1      108.600000000000       0.000000000000       0.000000000000
       162    1      111.315000000000       2.715000000000       0.000000000000
       163    1      108.600000000000       2.715000000000       2.715000000000
       164    1      111.315000000000       0.000000000000       2.715000000000
       165    1      109.957500000000       1.357500000000       1.357500000000
       166    1      112.672500000000       4.072500000000       1.357500000000
       167    1      112.672500000000       1.357500000000       4.072500000000
       168    1      109.957500000000       4.072500000000       4.072500000000
       169    1      114.030000000000       0.000000000000       0.000000000000
       170    1      116.745000000000       2.715000000000       0.000000000000
       171    1      114.030000000000       2.715000000000       2.715000000000
       172    1      116.745000000000       0.000000000000       2.715000000000
       173    1      115.387500000000       1.357500000000       1.357500000000
       174    1      118.102500000000       4.072500000000       1.357500000000
       175    1      118.102500000000       1.357500000000       4.072500000000
       176    1      115.387500000000       4.072500000000       4.072500000000
       177    1      119.460000000000       0.000000000000       0.000000000000
       178    1      122.175000000000       2.715000000000       0.000000000000
       179    1      119.460000000000       2.715000000000       2.715000000000
       180    1      122.175000000000       0.000000000000       2.715000000000
       181    1      120.817500000000       1.357500000000       1.357500000000
       182    1      123.532500000000       4.072500000000       1.357500000000
       183    1      123.532500000000       1.357500000000       4.072500000000
       184    1      120.817500000000       4.072500000000       4.072500000000
       185    1      124.890000000000       0.000000000000       0.000000000000
       186    1      127.605000000000       2.715000000000       0.000000000000
       187    1      124.890000000000       2.715000000000       2.715000000000
       188    1      127.605000000000       0.000000000000       2.715000000000
       189    1      126.247500000000       1.357500000000       1.357500000000
       190    1      128.962500000000       4.072500000000       1.357500000000
       191    1      128.962500000000       1.357500000000       4.072500000000
       192    1      126.247500000000       4.072500000000       4.072500000000
       193    1      130.320000000000       0.000000000000       0.000000000000
       194    1      133.035000000000       2.715000000000       0.000000000000
       195    1      130.320000000000       2.715000000000       2.715000000000
       196    1      133.035000000000       0.000000000000       2.715000000000
       197    1      131.677500000000       1.357500000000       1.357500000000
       198    1      134.392500000000       4.072500000000       1.357500000000
       199    1      134.392500000000       1.357500000000       4.072500000000
       200    1      131.677500000000       4.072500000000       4.072500000000
       201    1      135.750000000000       0.000000000000       0.000000000000
       202    1      138.465000000000       2.715000000000       0.000000000000
       203    1      135.750000000000       2.715000000000       2.715000000000
       204    1      138.465000000000       0.000000000000       2.715000000000
       205    1      137.107500000000       1.357500000000       1.357500000000
       206    1      139.822500000000       4.072500000000       1.357500000000
       207    1      139.822500000000       1.357500000000       4.072500000000
       208    1      137.107500000000       4.072500000000       4.072500000000
       209    1      141.180000000000       0.000000000000       0.000000000000
       210    1      143.895000000000       2.715000000000       0.000000000000
       211    1      141.180000000000       2.715000000000       2.715000000000
       212    1      143.895000000000       0.000000000000       2.715000000000
       213    1      142.537500000000       1.357500000000       1.357500000000
       214    1      145.252500000000       4.072500000000       1.357500000000
       215    1      145.252500000000       1.357500000000       4.072500000000
       216    1      142.537500000000       4.072500000000       4.072500000000
       217    1      146.610000000000       0.000000000000       0.000000000000
       218    1      149.325000000000       2.715000000000       0.000000000000
       219    1      146.610000000000       2.715000000000       2.715000000000
       220    1      149.325000000000       0.000000000000       2.715000000000
       221    1      147.967500000000       1.357500000000       1.357500000000
       222    1      150.682500000000       4.072500000000       1.357500000000
       223    1      150.682500000000       1.357500000000       4.072500000000
       224    1      147.967500000000       4.072500000000       4.072500000000
       225    1      152.040000000000       0.000000000000       0.000000000000
       226    1      154.755000000000       2.715000000000       0.000000000000
       227    1      152.040000000000       2.715000000000       2.715000000000
       228    1      154.755000000000       0.000000000000       2.715000000000
       229    1      153.397500000000       1.357500000000       1.357500000000
       230    1      156.112500000000       4.072500000000       1.357500000000
       231    1      156.112500000000       1.357500000000       4.072500000000
       232    1      153.397500000000       4.072500000000       4.072500000000
       233    1      157.470000000000       0.000000000000       0.000000000000
       234    1      160.185000000000       2.715000000000       0.000000000000
       235    1      157.470000000000       2.715000000000       2.715000000000
       236    1      160.185000000000       0.000000000000       2.715000000000
       237    1      158.827500000000       1.357500000000       1.357500000000
       238    1      161.542500000000       4.072500000000       1.357500000000
       239    1      161.542500000000       1.357500000000       4.072500000000
       240    1      158.827500000000       4.072500000000       4.072500000000
       241    1        0.000000000000       5.430000000000       0.000000000000
       242    1        2.715000000000       8.145000000000       0.000000000000
       243    1        0.000000000000       8.145000000000       2.715000000000
       244    1        2.715000000000       5.430000000000       2.715000000000
       245    1        1.357500000000       6.787500000000       1.357500000000
       246    1        4.072500000000       9.502500000000       1.357500000000
       247    1        4.072500000000       6.787500000000       4.072500000000
       248    1        1.357500000000       9.502500000000       4.072500000000
       249    1        5.430000000000       5.430000000000       0.000000000000
       250    1        8.145000000000       8.145000000000       0.000000000000
       251    1        5.430000000000       8.145000000000       2.715000000000
       252    1        8.145000000000       5.430000000000       2.715000000000
       253    1        6.787500000000       6.787500000000       1.357500000000
       254    1        9.502500000000       9.502500000000       1.357500000000
       255    1        9.502500000000       6.787500000000       4.072500000000
       256    1        6.787500000000       9.502500000000       4.072500000000
       257    1       10.860000000000       5.430000000000       0.000000000000
       258    1       13.575000000000       8.145000000000       0.000000000000
       259    1       10.860000000000       8.145000000000       2.715000000000
       260    1       13.575000000000       5.430000000000       2.715000000000
       261    1       12.217500000000       6.787500000000       1.357500000000
       262    1       14.932500000000       9.502500000000       1.357500000000
       263    1       14.932500000000       6.787500000000       4.072500000000
       264    1       12.217500000000       9.502500000000       4.072500000000
       265    1       16.290000000000       5.430000000000       0.000000000000
       266    1       19.005000000000       8.145000000000       0.000000000000
       267    1       16.290000000000       8.145000000000       2.715000000000
       268    1       19.005000000000       5.430000000000       2.715000000000
       269    1       17.647500000000       6.787500000000       1.357500000000
       270    1       20.362500000000       9.502500000000       1.357500000000
       271    1       20.362500000000       6.787500000000       4.072500000000
       272    1       17.647500000000       9.502500000000       4.072500000000
       273    1       21.720000000000       5.430000000000       0.000000000000
       274    1       24.435000000000       8.145000000000       0.000000000000
       275    1       21.720000000000       8.145000000000       2.715000000000
       276    1       24.435000000000       5.430000000000       2.715000000000
       277    1       23.077500000000       6.787500000000       1.357500000000
       278    1       25.792500000000       9.502500000000       1.357500000000
       279    1       25.792500000000       6.787500000000       4.072500000000
       280    1       23.077500000000       9.502500000000       4.072500000000
       281    1       27.150000000000       5.430000000000       0.000000000000
       282    1       29.865000000000       8.145000000000       0.000000000000
       283    1       27.150000000000       8.145000000000       2.715000000000
       284    1       29.865000000000       5.430000000000       2.715000000000
       285    1       28.507500000000       6.787500000000       1.357500000000
       286    1       31.222500000000       9.502500000000       1.357500000000
       287    1       31.222500000000       6.787500000000       4.072500000000
       288    1       28.507500000000       9.502500000000       4.072500000000
       289    1       32.580000000000       5.430000000000       0.000000000000
       290    1       35.295000000000       8.145000000000       0.000000000000
       291    1       32.580000000000       8.145000000000       2.715000000000
       292    1       35.295000000000       5.430000000000       2.715000000000
       293    1       33.937500000000       6.787500000000       1.357500000000
       294    1       36.652500000000       9.502500000000       1.357500000000
       295    1       36.652500000000       6.787500000000       4.072500000000
       296    1       33.937500000000       9.502500000000       4.072500000000
       297    1       38.010000000000       5.430000000000       0.000000000000
       298    1       40.725000000000       8.145000000000       0.000000000000
       299    1       38.010000000000       8.145000000000       2.715000000000
       300    1       40.725000000000       5.430000000000       2.715000000000
       301    1       39.367500000000       6.787500000000       1.357500000000
       302    1       42.082500000000       9.502500000000       1.357500000000
       303    1       42.082500000000       6.787500000000       4.072500000000
       304    1       39.367500000000       9.502500000000       4.072500000000
       305    1       43.440000000000       5.430000000000       0.000000000000
       306    1       46.155000000000       8.145000000000       0.000000000000
       307    1       43.440000000000       8.145000000000       2.715000000000
       308    1       46.155000000000       5.430000000000       2.715000000000
       309    1       44.797500000000       6.787500000000       1.357500000000
       310    1       47.512500000000       9.502500000000       1.357500000000
       311    1       47.512500000000       6.787500000000       4.072500000000
       312    1       44.797500000000       9.502500000000       4.072500000000
       313    1       48.870000000000       5.430000000000       0.000000000000
       314    1       51.585000000000       8.145000000000       0.000000000000
       315    1       48.870000000000       8.145000000000       2.715000000000
       316    1       51.585000000000       5.430000000000       2.715000000000
       317    1       50.227500000000       6.787500000000       1.357500000000
       318    1       52.942500000000       9.502500000000       1.357500000000
       319    1       52.942500000000       6.787500000000       4.072500000000
       320    1       50.227500000000       9.502500000000       4.072500000000
       321    1       54.300000000000       5.430000000000       0.000000000000
       322    1       57.015000000000       8.145000000000       0.000000000000
       323    1       54.300000000000       8.145000000000       2.715000000000
       324    1       57.015000000000       5.430000000000       2.715000000000
       325    1       55.657500000000       6.787500000000       1.357500000000
       326    1       58.372500000000       9.502500000000       1.357500000000
       327    1       58.372500000000       6.787500000000       4.072500000000
       328    1       55.657500000000       9.502500000000       4.072500000000
       329    1       59.730000000000       5.430000000000       0.000000000000
       330    1       62.445000000000       8.145000000000       0.000000000000
       331    1       59.730000000000       8.145000000000       2.715000000000
       332    1       62.445000000000       5.430000000000       2.715000000000
       333    1       61.087500000000       6.787500000000       1.357500000000
       334    1       63.802500000000       9.502500000000       1.357500000000
       335    1       63.802500000000       6.787500000000       4.072500000000
       336    1       61.087500000000       9.502500000000       4.072500000000
       337    1       65.160000000000       5.430000000000       0.000000000000
       338    1       67.875000000000       8.145000000000       0.000000000000
       339    1       65.160000000000       8.145000000000       2.715000000000
       340    1       67.875000000000       5.430000000000       2.715000000000
       341    1       66.517500000000       6.787500000000       1.357500000000
       342    1       69.232500000000       9.502500000000       1.357500000000
       343    1       69.232500000000       6.787500000000       4.072500000000
       344    1       66.517500000000       9.502500000000       4.072500000000
       345    1       70.590000000000       5.430000000000       0.000000000000
       346    1       73.305000000000       8.145000000000       0.000000000000
       347    1       70.590000000000       8.145000000000       2.715000000000
       348    1       73.305000000000       5.430000000000       2.715000000000
       349    1       71.947500000000       6.787500000000       1.357500000000
       350    1       74.662500000000       9.502500000000       1.357500000000
       351    1       74.662500000000       6.787500000000       4.072500000000
       352    1       71.947500000000       9.502500000000       4.072500000000
       353    1       76.020000000000       5.430000000000       0.000000000000
       354    1       78.735000000000       8.145000000000       0.000000000000
       355    1       76.020000000000       8.145000000000       2.715000000000
       356    1       78.735000000000       5.430000000000       2.715000000000
       357    1       77.377500000000       6.787500000000       1.357500000000
       358    1       80.092500000000       9.502500000000       1.357500000000
       359    1       80.092500000000       6.787500000000       4.072500000000
       360    1       77.377500000000       9.502500000000       4.072500000000
       361    1       81.450000000000       5.430000000000       0.000000000000
       362    1       84.165000000000       8.145000000000       0.000000000000
       363    1       81.450000000000       8.145000000000       2.715000000000
       364    1       84.165000000000       5.430000000000       2.715000000000
       365    1       82.807500000000       6.787500000000       1.357500000000
       366    1       85.522500000000       9.502500000000       1.357500000000
       367    1       85.522500000000       6.787500000000       4.072500000000
       368    1       82.807500000000       9.502500000000       4.072500000000
       369    1       86.880000000000       5.430000000000       0.000000000000
       370    1       89.595000000000       8.145000000000       0.000000000000